/*--------------------------------*- C++ -*----------------------------------*\
  =========                 |
  \\      /  F ield         | OpenFOAM: The Open Source CFD Toolbox
   \\    /   O peration     | Website:  https://openfoam.org
    \\  /    A nd           | Version:  8
     \\/     M anipulation  |
\*---------------------------------------------------------------------------*/
FoamFile
{
    version     2.0;
    format      binary;
    class       volScalarField;
    location    "4/fluid";
    object      rho;
}
// * * * * * * * * * * * * * * * * * * * * * * * * * * * * * * * * * * * * * //

dimensions      [1 -3 0 0 0 0 0];

internalField   uniform 1000;

boundaryField
{
    fluidInlet
    {
        type            calculated;
        value           uniform 1000;
    }
    fluidOutlet
    {
        type            calculated;
        value           uniform 1000;
    }
    fluid_to_metal
    {
        type            calculated;
        value           uniform 1000;
    }
}


// ************************************************************************* //
